     StepNr.          Time[fs]        Kin.[a.u.]          Temp[K]            Pot.[a.u.]        ConsQty[a.u.]        UsedTime[s]
         0            0.000000         0.275037913       300.000000000     -1103.008801801     -1102.733763889         0.000000000
         1            0.500000         0.277645210       302.843932853     -1103.012284729     -1102.733829420       140.686401971
         2            1.000000         0.270522835       295.075139264     -1103.021524940     -1102.734082800       315.783000730
         3            1.500000         0.282132792       307.738801599     -1103.036346195     -1102.734490508        36.888236165
         4            2.000000         0.281935280       307.523363820     -1103.046898688     -1102.734689738        33.116973564
         5            2.500000         0.301083367       328.409306500     -1103.055767591     -1102.734802422       223.902430337
         6            3.000000         0.325327066       354.853331853     -1103.060090939     -1102.734807477        22.788936570
         7            3.500000         0.317936296       346.791785275     -1103.058113649     -1102.734663351        33.265063632
         8            4.000000         0.308983580       337.026532574     -1103.052672600     -1102.734455003        24.483737070
         9            4.500000         0.304284436       331.900900569     -1103.046708362     -1102.734289011        34.497902878
        10            5.000000         0.297362757       324.351018128     -1103.042306725     -1102.734181530        37.311892271
        11            5.500000         0.314101274       342.608701980     -1103.044921072     -1102.734234611        26.977741707
        12            6.000000         0.312635485       341.009879893     -1103.048389256     -1102.734310565        23.820727173
        13            6.500000         0.304466660       332.099663152     -1103.053488935     -1102.734373616        18.625968687
        14            7.000000         0.298917282       326.046629807     -1103.058569025     -1102.734420282        16.800894484
        15            7.500000         0.314723987       343.287931342     -1103.062171974     -1102.734421865        14.025147513
        16            8.000000         0.322946602       352.256820592     -1103.067772129     -1102.734482564        15.058036681
        17            8.500000         0.315355656       343.976929981     -1103.071155913     -1102.734507257        15.105171829
        18            9.000000         0.301872564       329.270130228     -1103.073529975     -1102.734517520        13.240858458
        19            9.500000         0.294232030       320.936151054     -1103.072376318     -1102.734425293        13.774795014
        20           10.000000         0.295079422       321.860451180     -1103.072143235     -1102.734351788        16.159533039
        21           10.500000         0.308874624       336.907688051     -1103.073573154     -1102.734251962        13.686452284
        22           11.000000         0.306049472       333.826128252     -1103.076063074     -1102.734190302        12.819529526
        23           11.500000         0.317561554       346.383032083     -1103.080875141     -1102.734230411        13.997795936
        24           12.000000         0.319235922       348.209363702     -1103.087166621     -1102.734290549        14.478128910
        25           12.500000         0.299912813       327.132514583     -1103.091906059     -1102.734311365        14.017658785
        26           13.000000         0.292203671       318.723700958     -1103.095362161     -1102.734314369        12.150149226
        27           13.500000         0.308506292       336.505926520     -1103.098750864     -1102.734300322        10.914038379
        28           14.000000         0.298768753       325.884621189     -1103.104225703     -1102.734305867        11.011153743
        29           14.500000         0.304458076       332.090299386     -1103.112766836     -1102.734374944        11.728337403
        30           15.000000         0.320998923       350.132373185     -1103.117777423     -1102.734400444        13.656841021
        31           15.500000         0.339662644       370.489988553     -1103.120697539     -1102.734399795        10.510737658
        32           16.000000         0.327351527       357.061530476     -1103.122285673     -1102.734412892        10.411477476
        33           16.500000         0.316064483       344.750089315     -1103.121855517     -1102.734453790        10.150771920
        34           17.000000         0.320951850       350.081027036     -1103.121144808     -1102.734551173        10.165262878
        35           17.500000         0.319080111       348.039411816     -1103.116659648     -1102.734614453        10.660849016
        36           18.000000         0.308275836       336.254554378     -1103.111462860     -1102.734581009        10.655884609
        37           18.500000         0.323222100       352.557322757     -1103.103582011     -1102.734337611        10.191475146
        38           19.000000         0.292419628       318.959257850     -1103.095265595     -1102.734049732        10.191144746
        39           19.500000         0.303284397       330.810098692     -1103.097316055     -1102.734054949         9.900164284
        40           20.000000         0.294652093       321.394338018     -1103.107933590     -1102.734303490        12.763847612
        41           20.500000         0.323215979       352.550646188     -1103.122305706     -1102.734640400        10.363318637
        42           21.000000         0.328896265       358.746467099     -1103.135664986     -1102.734967536        10.375398602
        43           21.500000         0.321227687       350.381898859     -1103.143950241     -1102.735104323        10.535910822
        44           22.000000         0.306958814       334.818001630     -1103.148920332     -1102.735098934        10.613229841
        45           22.500000         0.320710453       349.817722001     -1103.149737353     -1102.734983361        10.277191762
        46           23.000000         0.308494176       336.492711201     -1103.150506819     -1102.734932262        10.542929638
        47           23.500000         0.309408374       337.489880553     -1103.153863677     -1102.734969231        10.508480299
        48           24.000000         0.322224464       351.469142282     -1103.158201232     -1102.735047873        10.136310957
        49           24.500000         0.323702048       353.080830238     -1103.163010389     -1102.735113977         9.223249100
        50           25.000000         0.324231602       353.658445395     -1103.165730321     -1102.735136346        11.800378516
        51           25.500000         0.311434214       339.699583094     -1103.165493777     -1102.735076103        10.388555955
        52           26.000000         0.302698145       330.170639671     -1103.166640825     -1102.735078176        10.386167582
        53           26.500000         0.316975288       345.743557943     -1103.165505361     -1102.735056973        10.264696863
        54           27.000000         0.317366720       346.170515588     -1103.166106427     -1102.735044129        10.245688889
        55           27.500000         0.296061066       322.931188125     -1103.166598048     -1102.734991685         9.120160956
        56           28.000000         0.278942184       304.258618283     -1103.168443419     -1102.734969124         9.310510304
        57           28.500000         0.294745400       321.496113673     -1103.170838528     -1102.735011389        10.317922372
        58           29.000000         0.292978922       319.569312244     -1103.170038387     -1102.734955573        10.387627263
        59           29.500000         0.302525042       329.981826283     -1103.169433992     -1102.734930320        10.151666027
        60           30.000000         0.298538610       325.633590649     -1103.169428104     -1102.734928318        13.372009829
        61           30.500000         0.309444238       337.528998849     -1103.171762596     -1102.735009060        10.445680946
        62           31.000000         0.316521802       345.248914086     -1103.170824058     -1102.734992673        10.510306165
        63           31.500000         0.326008588       355.596708648     -1103.168283221     -1102.734942567         9.967595957
        64           32.000000         0.330257519       360.231267411     -1103.164851134     -1102.734856869         9.333364666
        65           32.500000         0.332965169       363.184659634     -1103.161596544     -1102.734779967        10.483610466
        66           33.000000         0.330163441       360.128650236     -1103.157141258     -1102.734658953         9.492538620
        67           33.500000         0.332338205       362.500793045     -1103.157116738     -1102.734635342         9.367543526
        68           34.000000         0.338956515       369.719772177     -1103.160230292     -1102.734745401         9.415958501
        69           34.500000         0.345153713       376.479420465     -1103.164562752     -1102.734882750         9.156473715
        70           35.000000         0.351185356       383.058487706     -1103.166734284     -1102.734919887        11.733718492
        71           35.500000         0.342494156       373.578485653     -1103.165291108     -1102.734846865         9.422667366
        72           36.000000         0.336111725       366.616793538     -1103.165023545     -1102.734781127         9.074753132
        73           36.500000         0.336047266       366.546484099     -1103.163163242     -1102.734692330         9.198475685
        74           37.000000         0.313610189       342.073046295     -1103.161619347     -1102.734683550         9.179993760
        75           37.500000         0.326868995       356.535204611     -1103.163947257     -1102.734832547         9.296112847
        76           38.000000         0.321190444       350.341275532     -1103.164661157     -1102.734859558         9.344922066
        77           38.500000         0.303724317       331.289945835     -1103.164286235     -1102.734808575         9.366361130
        78           39.000000         0.306444699       334.257225747     -1103.163521293     -1102.734735863         9.300103158
        79           39.500000         0.302826445       330.310583550     -1103.162699519     -1102.734687612         9.288620248
        80           40.000000         0.291831416       318.317660424     -1103.162571754     -1102.734673217        12.691015128
        81           40.500000         0.313583032       342.043424544     -1103.164667675     -1102.734778485         9.099183712
        82           41.000000         0.305938859       333.705476680     -1103.166232622     -1102.734872239         9.279683635
        83           41.500000         0.318688141       347.611867049     -1103.167787441     -1102.734957364         9.184445892
        84           42.000000         0.326689616       356.339545995     -1103.168222056     -1102.735001030         9.737354040
        85           42.500000         0.318094367       346.964203152     -1103.164224768     -1102.734957248         9.783969533
        86           43.000000         0.302700574       330.173289018     -1103.162116931     -1102.734932586         9.257959552
        87           43.500000         0.292174947       318.692369823     -1103.160632287     -1102.734945780         9.402764499
        88           44.000000         0.294013573       320.697867274     -1103.159714960     -1102.734966602         9.551158611
        89           44.500000         0.295453351       322.268317524     -1103.158302691     -1102.734978148         9.317786206
        90           45.000000         0.298206147       325.270953884     -1103.157171114     -1102.734982389        12.424738526
        91           45.500000         0.303856010       331.433591228     -1103.158073168     -1102.734989110         9.451736242
        92           46.000000         0.303096225       330.604848891     -1103.155669074     -1102.734881706         9.634115763
        93           46.500000         0.280530638       305.991238407     -1103.151520548     -1102.734742107         9.665740341
        94           47.000000         0.265559090       289.660891268     -1103.148773008     -1102.734658407         9.583172828
        95           47.500000         0.285131784       311.009978628     -1103.152299461     -1102.734730231         9.354423668
        96           48.000000         0.287203937       313.270196815     -1103.155948822     -1102.734806127         9.471361842
        97           48.500000         0.293237641       319.851512454     -1103.158329059     -1102.734827516         9.367229432
        98           49.000000         0.288679479       314.879657229     -1103.158835994     -1102.734827861         9.219793823
        99           49.500000         0.296629120       323.550797960     -1103.155904630     -1102.734762348         9.146309581
       100           50.000000         0.263576724       287.498608886     -1103.153652830     -1102.734714819        12.114568200
       101           50.500000         0.279425406       304.785696456     -1103.153323843     -1102.734661253         9.177393492
       102           51.000000         0.294220569       320.923649533     -1103.154668629     -1102.734628929         9.774428681
       103           51.500000         0.294333843       321.047204429     -1103.154560865     -1102.734578335         9.458705116
       104           52.000000         0.285899929       311.847839476     -1103.157102970     -1102.734676917         9.368247785
       105           52.500000         0.288044761       314.187333018     -1103.160055887     -1102.734817201         9.486031003
       106           53.000000         0.280340377       305.783709040     -1103.163492089     -1102.734955621         9.358007785
       107           53.500000         0.292489652       319.035636598     -1103.165051386     -1102.735027001         9.519598182
       108           54.000000         0.288756913       314.964118822     -1103.166440960     -1102.735084914         9.448386002
       109           54.500000         0.291131894       317.554650274     -1103.166344641     -1102.735112202         9.672366053
       110           55.000000         0.282123100       307.728229890     -1103.161850198     -1102.735021245        11.723548494
       111           55.500000         0.283888707       309.654081220     -1103.156490972     -1102.734900099         9.178822048
       112           56.000000         0.291531791       317.990841545     -1103.152005645     -1102.734801804         9.263432555
       113           56.500000         0.282389734       308.019063089     -1103.150071239     -1102.734771516         9.408490162
       114           57.000000         0.282921574       308.599172269     -1103.151235536     -1102.734789884         9.612350255
       115           57.500000         0.298263339       325.333336344     -1103.153836747     -1102.734820983         9.203756128
       116           58.000000         0.296959511       323.911174734     -1103.156276234     -1102.734863563         9.254628867
       117           58.500000         0.275215100       300.193269068     -1103.160473426     -1102.734973983         9.297637571
       118           59.000000         0.290145182       316.478386252     -1103.164319979     -1102.735042934         9.297042776
       119           59.500000         0.299049149       326.190465587     -1103.163867948     -1102.735026630         9.725157328
       120           60.000000         0.301502598       328.866585810     -1103.162058140     -1102.734928066        11.992878597
       121           60.500000         0.286007309       311.964965150     -1103.161554751     -1102.734866542         9.384332828
       122           61.000000         0.284265640       310.065224279     -1103.164137763     -1102.734889815         9.088737458
       123           61.500000         0.287092324       313.148454673     -1103.168718109     -1102.734970707         9.100281835
       124           62.000000         0.295028044       321.804409849     -1103.171807940     -1102.735018613         9.426264159
       125           62.500000         0.299782298       326.990153593     -1103.175415190     -1102.735046594         9.297107905
       126           63.000000         0.307995340       335.948601050     -1103.177740069     -1102.734969744         9.436101466
       127           63.500000         0.319720738       348.738181621     -1103.180802608     -1102.734940078         9.805188071
       128           64.000000         0.314979229       343.566339233     -1103.181337263     -1102.734910685         9.214675087
       129           64.500000         0.319238960       348.212677313     -1103.183464152     -1102.734933708         8.387385927
       130           65.000000         0.333346025       363.600081439     -1103.185760878     -1102.735002725        12.168884415
       131           65.500000         0.307899250       335.843790597     -1103.185970450     -1102.734992324         9.305545572
       132           66.000000         0.302779234       330.259088511     -1103.183491273     -1102.734950113         9.606942713
       133           66.500000         0.313724451       342.197679457     -1103.177192973     -1102.734826911         9.738755174
       134           67.000000         0.305277778       332.984396490     -1103.172285210     -1102.734739750         9.659352571
       135           67.500000         0.308367583       336.354628427     -1103.167850588     -1102.734635563         9.583124764
       136           68.000000         0.305605709       333.342090809     -1103.165183667     -1102.734556684         9.482411426
       137           68.500000         0.309751052       337.863659435     -1103.165746142     -1102.734544751         9.371498089
       138           69.000000         0.300607856       327.890638121     -1103.168817491     -1102.734628478         9.491510127
       139           69.500000         0.298744802       325.858496773     -1103.173003616     -1102.734747101         9.246775869
       140           70.000000         0.309885386       338.010185827     -1103.178368869     -1102.734930204        12.032037903
       141           70.500000         0.302159390       329.582987906     -1103.180724913     -1102.735050018         9.557137836
       142           71.000000         0.306331288       334.133521723     -1103.177714889     -1102.735069382         9.446845535
       143           71.500000         0.283561175       309.296822955     -1103.170226510     -1102.734960790         8.469535179
       144           72.000000         0.285523550       311.437300573     -1103.162279421     -1102.734757085         9.621103320
       145           72.500000         0.277904930       303.127224614     -1103.152764814     -1102.734483488         9.412554651
       146           73.000000         0.264267747       288.252348209     -1103.149982963     -1102.734413372         9.876502749
       147           73.500000         0.273908091       298.767636754     -1103.152755881     -1102.734536351         9.330130152
       148           74.000000         0.282499648       308.138953068     -1103.157432170     -1102.734685596         8.501251411
       149           74.500000         0.301047143       328.369794682     -1103.163678221     -1102.734837715         9.403518431
       150           75.000000         0.295818339       322.666430934     -1103.170613089     -1102.734987146        12.099216107
       151           75.500000         0.305820124       333.575965485     -1103.176155123     -1102.735078575         9.410639919
       152           76.000000         0.301794068       329.184509445     -1103.178027167     -1102.735011661         9.242788099
       153           76.500000         0.295906770       322.762887675     -1103.177256498     -1102.734862867         8.362577707
       154           77.000000         0.287270568       313.342875747     -1103.175047691     -1102.734711327         8.303908903
       155           77.500000         0.275328636       300.317109093     -1103.176778644     -1102.734689490         9.395235993
       156           78.000000         0.278473118       303.746980236     -1103.178804878     -1102.734676812         9.212279014
       157           78.500000         0.280608327       306.075978043     -1103.185815165     -1102.734790014         9.396336880
       158           79.000000         0.302586886       330.049282487     -1103.194564645     -1102.734990657         9.231359292
       159           79.500000         0.309907572       338.034384628     -1103.198935238     -1102.735051929         9.275462359
       160           80.000000         0.306728781       334.567090531     -1103.196954795     -1102.734972228        11.976922769
       161           80.500000         0.291584875       318.048742941     -1103.193066317     -1102.734868658         9.158037182
       162           81.000000         0.280493354       305.950570394     -1103.186622637     -1102.734708780         9.170335803
       163           81.500000         0.295515190       322.335768291     -1103.181998905     -1102.734608988         9.491474193
       164           82.000000         0.292809182       319.384167081     -1103.180506667     -1102.734579350         9.378112666
       165           82.500000         0.305585516       333.320064601     -1103.179902900     -1102.734579035         9.386334758
       166           83.000000         0.302223141       329.652524561     -1103.183337815     -1102.734668960         9.554320280
       167           83.500000         0.293457139       320.090931423     -1103.184357307     -1102.734672835         9.640566085
       168           84.000000         0.308201061       336.172992650     -1103.185130360     -1102.734692121         9.449454758
       169           84.500000         0.285498699       311.410194062     -1103.183227137     -1102.734668741         9.364128225
       170           85.000000         0.292483830       319.029286423     -1103.181024645     -1102.734635127        12.086580202
       171           85.500000         0.270264917       294.793813295     -1103.179024615     -1102.734586208         9.498151071
       172           86.000000         0.270614917       295.175579277     -1103.180334818     -1102.734591507         9.176149663
       173           86.500000         0.276393095       301.478177292     -1103.184459282     -1102.734659653         9.259652015
       174           87.000000         0.282511631       308.152023580     -1103.188592507     -1102.734707032         9.178169508
       175           87.500000         0.273907440       298.766927551     -1103.192261066     -1102.734739272         9.260530539
       176           88.000000         0.275146680       300.118639355     -1103.196300979     -1102.734771156         9.627497818
       177           88.500000         0.286288470       312.271643343     -1103.200910527     -1102.734829846         8.243269388
       178           89.000000         0.293463028       320.097355344     -1103.202581448     -1102.734778104         8.213005684
       179           89.500000         0.298199839       325.264072651     -1103.203039490     -1102.734695184         8.505470712
       180           90.000000         0.303779841       331.350509005     -1103.204487779     -1102.734671286        12.742901027
       181           90.500000         0.317076850       345.854337463     -1103.207515249     -1102.734783241         9.531485125
       182           91.000000         0.306586326       334.411706878     -1103.211649600     -1102.734923673         9.446385127
       183           91.500000         0.314045837       342.548233246     -1103.211489847     -1102.734920763         8.452078816
       184           92.000000         0.299635267       326.829778336     -1103.210756177     -1102.734885708         8.518043313
       185           92.500000         0.289581292       315.863317753     -1103.210056547     -1102.734887907        10.758034077
       186           93.000000         0.303234450       330.755618569     -1103.208136242     -1102.734872312         9.103538640
       187           93.500000         0.294076565       320.766575703     -1103.205225050     -1102.734831957         9.478906881
       188           94.000000         0.297319480       324.303813396     -1103.202789328     -1102.734787848         9.312616996
       189           94.500000         0.285296241       311.189360908     -1103.200743787     -1102.734751683         9.386044122
       190           95.000000         0.277716553       302.921750832     -1103.197534613     -1102.734675805        11.751735732
       191           95.500000         0.279756286       305.146606879     -1103.197371638     -1102.734697770         8.399768043
       192           96.000000         0.267424524       291.695630232     -1103.202031274     -1102.734803661         8.472484306
       193           96.500000         0.291089150       317.508027449     -1103.203795690     -1102.734840580         9.402647234
       194           97.000000         0.293299240       319.918702299     -1103.205305823     -1102.734879503         9.561533138
       195           97.500000         0.294418451       321.139491569     -1103.203233948     -1102.734802170         9.494626038
       196           98.000000         0.288274271       314.437673369     -1103.197711543     -1102.734634787         8.513949964
       197           98.500000         0.287218675       313.286272779     -1103.194162121     -1102.734560484         9.036593102
       198           99.000000         0.274812542       299.754175587     -1103.192579421     -1102.734535158         9.224934299
       199           99.500000         0.274402834       299.307282352     -1103.191847939     -1102.734533797         9.206315223
       200          100.000000         0.279683375       305.067078814     -1103.191211607     -1102.734523663        12.824862704
       201          100.500000         0.277660099       302.860172253     -1103.190836140     -1102.734522475         9.190304790
       202          101.000000         0.276681516       301.792774329     -1103.192921631     -1102.734592102         9.274965443
       203          101.500000         0.290873805       317.273137258     -1103.194413551     -1102.734623893         9.253117315
       204          102.000000         0.300591061       327.872318961     -1103.197078155     -1102.734672080         9.736977503
       205          102.500000         0.298324891       325.400474805     -1103.199146031     -1102.734708479         9.331186369
       206          103.000000         0.303572174       331.123993910     -1103.200525622     -1102.734754168         9.216287356
       207          103.500000         0.292853088       319.432057883     -1103.201633291     -1102.734806297         9.340212408
       208          104.000000         0.292068727       318.576509719     -1103.199566174     -1102.734809440         9.554104239
       209          104.500000         0.300917690       328.228592349     -1103.196311273     -1102.734770598         8.420565177
       210          105.000000         0.285852368       311.795961867     -1103.192011159     -1102.734701065        13.024112251
       211          105.500000         0.278553519       303.834677927     -1103.188263844     -1102.734587163         8.424300749
       212          106.000000         0.264735699       288.762770475     -1103.187616258     -1102.734529611         8.503860440
       213          106.500000         0.273109434       297.896494837     -1103.191052484     -1102.734588575         8.263981797
       214          107.000000         0.291954998       318.452457851     -1103.196054656     -1102.734757933         8.235549476
       215          107.500000         0.295990903       322.854656494     -1103.201418967     -1102.734964547         8.274097905
       216          108.000000         0.302823251       330.307099761     -1103.205795361     -1102.735109896         8.257841557
       217          108.500000         0.316179843       344.875919556     -1103.205803692     -1102.735081922         8.300337587
       218          109.000000         0.295773697       322.617737485     -1103.201314471     -1102.734945125         8.344008744
       219          109.500000         0.286370575       312.361200447     -1103.196521580     -1102.734834522         9.198973395
       220          110.000000         0.302210927       329.639202418     -1103.194706787     -1102.734801110        10.880033884
       221          110.500000         0.298248835       325.317515748     -1103.196237043     -1102.734826100         8.469725646
       222          111.000000         0.287171338       313.234639775     -1103.198638601     -1102.734837453         8.586900122
       223          111.500000         0.284832866       310.683930862     -1103.201254242     -1102.734837623         8.538575910
       224          112.000000         0.284224840       310.020720862     -1103.202397489     -1102.734844923         8.583612718
       225          112.500000         0.284746028       310.589211065     -1103.206286781     -1102.734948412         8.615462456
       226          113.000000         0.297353054       324.340434766     -1103.209218144     -1102.735017440         8.600951694
       227          113.500000         0.302545479       330.004118068     -1103.212068315     -1102.735037571         8.331874315